#------------------------------------------------------------------------------
# This is a fake CIF file to demonstrate rgl.cry package.
# These parameters were dirived from [1] and have been modified for our use.
#
# [1] https://www.crystallography.net/cod/1000164.cif
#------------------------------------------------------------------------------

_space_group_IT_number           166
_symmetry_cell_setting           trigonal
_symmetry_space_group_name_Hall  '-P 3* 2'
_symmetry_space_group_name_H-M   'R -3 m :R'
_cell_angle_alpha                57.43(10)
_cell_angle_beta                 57.43
_cell_angle_gamma                57.43
_cell_formula_units_Z            2
_cell_length_a                   7.310(3)
_cell_length_b                   7.31
_cell_length_c                   7.31
_cell_volume                     259.9
_refine_ls_R_factor_all          0.11
_cod_original_sg_symbol_H-M      'R -3 m R'
_cod_original_formula_sum        'Al1.5 Cs F6 Na.5'
_cod_database_code               1000164

loop_
_symmetry_equiv_pos_as_xyz
'x, y, z'
'y, x, z'
'y, z, x'
'x, z, y'
'z, x, y'
'z, y, x'
'-x, -y, -z'
'-y, -x, -z'
'-y, -z, -x'
'-x, -z, -y'
'-z, -x, -y'
'-z, -y, -x'

loop_
_atom_site_label
_atom_site_type_symbol
_atom_site_symmetry_multiplicity
_atom_site_Wyckoff_symbol
_atom_site_fract_x
_atom_site_fract_y
_atom_site_fract_z
_atom_site_occupancy
_atom_site_attached_hydrogens
_atom_site_calc_flag
Cs1 Cs1+ 2 c 0.378 0.378 0.378 1. 0 d
Na1 Na1+ 1 a 0. 0. 0. 1. 0 d
Al1 Al3+ 3 d 0.5 0. 0. 1. 0 d
F1 F1- 6 h 0.295 0.295 0.07 1. 0 d
F2 F1- 6 h -0.102 -0.102 0.41 1. 0 d

loop_
_atom_type_symbol
_atom_type_oxidation_number
Cs1+ 1.000
Na1+ 1.000
Al3+ 3.000
F1- -1.000
